                              Psi4 1.0.54 Driver

  ==> Input File <==

--------------------------------------------------------------------------
memory 2000 mb

molecule {
0 1
C 0.0 0.0 0.0
C 0.0 0.0 1.27273
}

set {
  basis cc-pvdz
  reference rhf
  scf_type direct
}

set global {
  freeze_core true
}

energy('fci')
--------------------------------------------------------------------------

    Molecular point group: d2h

    Geometry (in Angstrom), charge = 0, multiplicity = 1:

       Center              X                  Y                   Z               Mass
    ------------   -----------------  -----------------  -----------------  -----------------
           C          0.000000000000     0.000000000000    -0.636365000000    12.000000000000
           C          0.000000000000     0.000000000000     0.636365000000    12.000000000000

  Charge       = 0
  Multiplicity = 1
  Basis Set: CC-PVDZ
  Basis Set:

    Orbital Energies (a.u.)
    -----------------------

    Doubly Occupied:

       1Ag   -11.371913     1B1u  -11.370066     2Ag    -1.050852
       2B1u   -0.523666     1B2u   -0.448142     1B3u   -0.448142

  @RHF Final Energy:   -75.38645665583738

   => Energetics <=

    Nuclear Repulsion Energy =             14.9681232541387388
    One-Electron Energy =                -130.2835977316596257
    Two-Electron Energy =                  39.9290178216834946
    DFT Exchange-Correlation Energy =       0.0000000000000000
    Empirical Dispersion Energy =           0.0000000000000000
    PCM Polarization Energy =               0.0000000000000000
    EFP Energy =                            0.0000000000000000
    Total Energy =                        -75.3864566558374065
*** Psi4 exiting successfully. Buy a developer a beer!
