                         Program Version 3.0.3 - RELEASE   -
|  1> ! uhf sto-3g nori verytightscf noautostart nousesym
|  2>
|  3> * xyz 0 2
|  4> C 0.0 0.0 0.0
|  5> N 0.0 0.0 1.1941
|  6> *
|  7>
|  8>                          ****END OF INPUT****

CARTESIAN COORDINATES (ANGSTROEM)
---------------------------------
  C      0.000000    0.000000    0.000000
  N      0.000000    0.000000    1.194100

 Total Charge           Charge          ....    0
 Multiplicity           Mult            ....    2
 Number of Electrons    NEL             ....   13
 Basis Dimension        Dim             ....   10

ORBITAL ENERGIES
----------------
                 SPIN UP ORBITALS
  NO   OCC          E(Eh)            E(eV)
   0   1.0000     -15.367886      -418.1814
   1   1.0000     -11.102074      -302.1028
   2   1.0000      -1.156133       -31.4600
   3   1.0000      -0.679521       -18.4907
   4   1.0000      -0.460656       -12.5351
   5   1.0000      -0.460656       -12.5351
   6   1.0000      -0.456082       -12.4106
   7   0.0000       0.354985         9.6596
   8   0.0000       0.354985         9.6596
   9   0.0000       1.054587        28.6968

                 SPIN DOWN ORBITALS
  NO   OCC          E(Eh)            E(eV)
   0   1.0000     -15.394764      -418.9128
   1   1.0000     -11.041499      -300.4545
   2   1.0000      -1.188281       -32.3348
   3   1.0000      -0.526789       -14.3347
   4   1.0000      -0.471653       -12.8343
   5   1.0000      -0.471653       -12.8343
   6   0.0000       0.141060         3.8384
   7   0.0000       0.389435        10.5971
   8   0.0000       0.389435        10.5971
   9   0.0000       1.119859        30.4729

MULLIKEN ATOMIC CHARGES AND SPIN POPULATIONS
--------------------------------------------
   0 C :    0.143707    2.174699
   1 N :   -0.143707   -1.174699
Sum of atomic charges         :   -0.0000000

LOEWDIN ATOMIC CHARGES AND SPIN POPULATIONS
-------------------------------------------
   0 C :    0.084352    2.103054
   1 N :   -0.084352   -1.103054

  Mayer bond orders larger than 0.1
B(  0-C ,  1-N ) :   2.3523

FINAL SINGLE POINT ENERGY       -91.024435313167

DIPOLE MOMENT
-------------
                                X             Y             Z
Electronic contribution:     -0.00000      -0.00000      -0.73640
Nuclear contribution   :      0.00000       0.00000       0.00304
                        -----------------------------------------
Total Dipole Moment    :     -0.00000      -0.00000      -0.73337
                        -----------------------------------------
Magnitude (a.u.)       :      0.73337
Magnitude (Debye)      :      1.86407

                             ****ORCA TERMINATED NORMALLY****
TOTAL RUN TIME: 0 days 0 hours 0 minutes 14 seconds 407 msec
