                              Psi4 1.0.54 Driver

  ==> Input File <==

--------------------------------------------------------------------------
memory 2000 mb

molecule {
0 2
C 0.0 0.0 0.0
N 0.0 0.0 1.1941
}

set {
  basis sto-3g
  reference rohf
  scf_type direct
}

energy('fci')
--------------------------------------------------------------------------

    Molecular point group: c2v

    Geometry (in Angstrom), charge = 0, multiplicity = 2:

       Center              X                  Y                   Z               Mass
    ------------   -----------------  -----------------  -----------------  -----------------
           C          0.000000000000     0.000000000000    -0.643042075181    12.000000000000
           N          0.000000000000     0.000000000000     0.551057924819    14.003074004780

  Charge       = 0
  Multiplicity = 2
  Basis Set: STO-3G
  Basis Set:

    Orbital Energies (a.u.)
    -----------------------

    Doubly Occupied:

       1A1   -15.395590     2A1   -11.094571     3A1    -1.170088
       4A1    -0.545204     1B2    -0.433674     1B1    -0.433674

    Singly Occupied:

       5A1    -0.233654

  @ROHF Final Energy:   -90.99529176127953

   => Energetics <=

    Nuclear Repulsion Energy =             18.6127148151578616
    One-Electron Energy =                -160.5109014185001683
    Two-Electron Energy =                  50.9028948420627714
    DFT Exchange-Correlation Energy =       0.0000000000000000
    Empirical Dispersion Energy =           0.0000000000000000
    PCM Polarization Energy =               0.0000000000000000
    EFP Energy =                            0.0000000000000000
    Total Energy =                        -90.9952917612795318
*** Psi4 exiting successfully. Buy a developer a beer!
