                              Psi4 1.0.54 Driver

  ==> Input File <==

--------------------------------------------------------------------------
memory 2000 mb

molecule {
0 2
C 0.0 0.0 0.0
N 0.0 0.0 1.1941
}

set {
  basis sto-3g
  reference uhf
  scf_type direct
}

energy('scf')
--------------------------------------------------------------------------

    Molecular point group: c2v

    Geometry (in Angstrom), charge = 0, multiplicity = 2:

       Center              X                  Y                   Z               Mass
    ------------   -----------------  -----------------  -----------------  -----------------
           C          0.000000000000     0.000000000000    -0.643042075181    12.000000000000
           N          0.000000000000     0.000000000000     0.551057924819    14.003074004780

  Charge       = 0
  Multiplicity = 2
  Basis Set: STO-3G
  Basis Set:

    Orbital Energies (a.u.)
    -----------------------

    Alpha Occupied:

       1A1   -15.367886     2A1   -11.102074     3A1    -1.156133
       4A1    -0.679522     1B1    -0.460657     1B2    -0.460657
       5A1    -0.456080

    Alpha Virtual:

       2B1     0.354986     2B2     0.354986     6A1     1.054588

    Beta Occupied:

       1A1   -15.394764     2A1   -11.041498     3A1    -1.188282
       4A1    -0.526791     1B1    -0.471653     1B2    -0.471653

    Beta Virtual:

       5A1     0.141062     2B1     0.389436     2B2     0.389436
       6A1     1.119859

    Final Occupation by Irrep:
             A1    A2    B1    B2
    DOCC [     4,    0,    1,    1 ]
    SOCC [     1,    0,    0,    0 ]

  Energy converged.

  @UHF Final Energy:   -91.02443531231188

   => Energetics <=

    Nuclear Repulsion Energy =             18.6127148151578616
    One-Electron Energy =                -160.4966509792005525
    Two-Electron Energy =                  50.8595008517308074
    DFT Exchange-Correlation Energy =       0.0000000000000000
    Empirical Dispersion Energy =           0.0000000000000000
    PCM Polarization Energy =               0.0000000000000000
    EFP Energy =                            0.0000000000000000
    Total Energy =                        -91.0244353123118799

  Saving occupied orbitals to File 180.

  UHF NO Occupations:
  HONO-2 :    1 B2 1.8296176
  HONO-1 :    1 B1 1.8296176
  HONO-0 :    5 A1 1.0000000
  LUNO+0 :    2 B1 0.1703824
  LUNO+1 :    2 B2 0.1703824
  LUNO+2 :    6 A1 0.0016926

*** tstop() called on copper at Fri Sep  9 09:02:01 2016
Module time:
	user time   =       0.27 seconds =       0.00 minutes
	system time =       0.00 seconds =       0.00 minutes
	total time  =          0 seconds =       0.00 minutes
Total time:
	user time   =       0.27 seconds =       0.00 minutes
	system time =       0.00 seconds =       0.00 minutes
	total time  =          0 seconds =       0.00 minutes

Properties will be evaluated at   0.000000,   0.000000,   0.000000 Bohr

Properties computed using the SCF density matrix

  Nuclear Dipole Moment: (a.u.)
     X:     0.0000      Y:     0.0000      Z:    -0.0016

  Electronic Dipole Moment: (a.u.)
     X:     0.0000      Y:     0.0000      Z:    -0.7318

  Dipole Moment: (a.u.)
     X:     0.0000      Y:     0.0000      Z:    -0.7334     Total:     0.7334

  Dipole Moment: (Debye)
     X:     0.0000      Y:     0.0000      Z:    -1.8640     Total:     1.8640

*** Psi4 exiting successfully. Buy a developer a beer!
