 Q-Chem 4.4, Q-Chem, Inc., Pleasanton, CA (2016)
 Q-Chem 4.4.1 for Intel X86 EM64T Linux

User input:
--------------------------------------------------------------
$rem
  method hf
  basis sto-3g
  scf_convergence 9
  thresh 14
  scf_algorithm rca_diis
  scf_max_cycles 1000
  symmetry false
  sym_ignore true
$end

$molecule
0 2
C 0.0 0.0 0.0
N 0.0 0.0 1.1941
$end
--------------------------------------------------------------

             Standard Nuclear Orientation (Angstroms)
    I     Atom           X                Y                Z
 ----------------------------------------------------------------
    1      C       0.0000000000     0.0000000000     0.0000000000
    2      N       0.0000000000     0.0000000000     1.1941000000
 ----------------------------------------------------------------

   33     -91.0244353114      3.63E-10 Convergence criterion met
 Total energy in the final basis set = -91.0244353114

                    Orbital Energies (a.u.)
 --------------------------------------------------------------

 Alpha MOs
 -- Occupied --
-15.368 -11.102  -1.156  -0.680  -0.461  -0.461  -0.456

 Beta MOs
 -- Occupied --
-15.395 -11.041  -1.188  -0.527  -0.472  -0.472

          Ground-State Mulliken Net Atomic Charges

     Atom                 Charge (a.u.)    Spin (a.u.)
  --------------------------------------------------------
      1 C                     0.143707       2.174699
      2 N                    -0.143707      -1.174699
  --------------------------------------------------------
  Sum of atomic charges =    -0.000000

                    Cartesian Multipole Moments
 -----------------------------------------------------------------
    Charge (ESU x 10^10)
                -0.0000
    Dipole Moment (Debye)
         X      -0.0000      Y       0.0000      Z      -1.8640
       Tot       1.8640
    Quadrupole Moments (Debye-Ang)
        XX      -9.4763     XY       0.0000     YY      -9.4763
        XZ      -0.0000     YZ      -0.0000     ZZ     -12.1959

 Total job time:  0.28s(wall), 0.25s(cpu)
        *  Thank you very much for using Q-Chem.  Have a nice day.  *
